[{"dataset_name": [["pay", "parking", "stations"]], "topic": ["zone", "number"], "topic_singl": ["zone", "number"], "desc": ["transportation", "department", "transportation", "option", "driving", "cycling", "walking", "transit", "smarter", "travel", "choice", "surrey", "transportation", "plan", "//www.surrey.ca/city-services/4789.aspx", "vision", "goal", "proposal", "priority", "transportation", "city"], "notes": ["location", "pay", "parking", "surrey", "parking", "rate", "station", "information", "please", "city", "pay", "page", "view"], "other_topics": ["1", "10", "11", "12", "14", "15", "19", "2", "20", "21", "22", "23", "24", "25", "26", "27", "28", "3", "4", "5", "6", "7", "8", "9"]}, [[{"zone.n.01": {"syn_name": "zone.n.01", "expl": [], "defn": "a locally circumscribed place characterized by some distinctive features", "hyper": ["topographic_point.n.01", "point.n.02", "location.n.01", "object.n.01", "physical_entity.n.01", "entity.n.01"], "hypo": ["island.n.02", "kitchen_island.n.01", "traffic_island.n.01"], "hyper_num_depth1": 1, "hypo_num_depth1": 1, "topic_dom": [], "region_dom": [], "usage_dom": [], "lemmas": ["zone.n.01.zone"], "lem_deriv_rel": ["zone.n.01.zonary", "zone.n.01.zone"], "anto": []}, "zone.n.02": {"syn_name": "zone.n.02", "expl": [], "defn": "any of the regions of the surface of the Earth loosely divided according to latitude or longitude", "hyper": ["geographical_area.n.01", "region.n.03", "location.n.01", "object.n.01", "physical_entity.n.01", "entity.n.01"], "hypo": ["climatic_zone.n.01", "time_zone.n.01", "transit_zone.n.01", "frigid_zone.n.01", "subtropics.n.01", "temperate_zone.n.01"], "hyper_num_depth1": 1, "hypo_num_depth1": 3, "topic_dom": [], "region_dom": [], "usage_dom": [], "lemmas": ["zone.n.02.zone", "zone.n.02.geographical_zone"], "lem_deriv_rel": ["zone.n.02.zonary"], "anto": []}, "zone.n.03": {"syn_name": "zone.n.03", "expl": [], "defn": "an area or region distinguished from adjacent parts by a distinctive feature or characteristic", "hyper": ["region.n.01", "location.n.01", "object.n.01", "physical_entity.n.01", "entity.n.01"], "hypo": ["buffer_zone.n.01", "combat_zone.n.02", "danger_zone.n.01", "demilitarized_zone.n.01", "drop_zone.n.01", "kill_zone.n.01", "strike_zone.n.01", "tidal_zone.n.01", "bridgehead.n.01", "war_zone.n.01", "airhead.n.02", "beachhead.n.01"], "hyper_num_depth1": 1, "hypo_num_depth1": 8, "topic_dom": [], "region_dom": [], "usage_dom": [], "lemmas": ["zone.n.03.zone"], "lem_deriv_rel": ["zone.n.03.zonary", "zone.n.03.zone"], "anto": []}, "zone.n.04": {"syn_name": "zone.n.04", "expl": [], "defn": "(anatomy) any encircling or beltlike structure", "hyper": ["structure.n.04", "body_part.n.01", "part.n.03", "thing.n.12", "physical_entity.n.01", "entity.n.01"], "hypo": ["zona_pellucida.n.01", "zonule.n.01"], "hyper_num_depth1": 1, "hypo_num_depth1": 2, "topic_dom": ["anatomy.n.01"], "region_dom": [], "usage_dom": [], "lemmas": ["zone.n.04.zone", "zone.n.04.zona"], "lem_deriv_rel": [], "anto": []}}, {"zone.n.01": {"source_words": ["goal", "pay", "//www.surrey.ca/city-services/4789.aspx", "number", "travel", "5", "25", "vision", "information", "location", "station", "1", "department", "15", "surrey", "transit", "transportation", "28", "city", "driving", "21", "please", "6", "2", "proposal", "26", "page", "cycling", "14", "24", "rate", "view", "3", "plan", "19", "20", "walking", "priority", "12", "10", "27", "4", "7", "zone", "11", "8", "smarter", "stations", "choice", "9", "option", "22", "23", "parking"], "target_words": ["zone", "point", "zonary", "topographic", "feature", "island", "spot", "place"], "overlap": ["zone"]}, "zone.n.02": {"source_words": ["goal", "pay", "//www.surrey.ca/city-services/4789.aspx", "number", "travel", "5", "25", "vision", "information", "location", "station", "1", "department", "15", "surrey", "transit", "transportation", "28", "city", "driving", "21", "please", "6", "2", "proposal", "26", "page", "cycling", "14", "24", "rate", "view", "3", "plan", "19", "20", "walking", "priority", "12", "10", "27", "4", "7", "zone", "11", "8", "smarter", "stations", "choice", "9", "option", "22", "23", "parking"], "target_words": ["area", "time", "surface", "zone", "region", "climatic", "zonary", "transit", "Earth", "geographical", "latitude", "geographic", "longitude"], "overlap": ["transit", "zone"]}, "zone.n.03": {"source_words": ["goal", "pay", "//www.surrey.ca/city-services/4789.aspx", "number", "travel", "5", "25", "vision", "information", "location", "station", "1", "department", "15", "surrey", "transit", "transportation", "28", "city", "driving", "21", "please", "6", "2", "proposal", "26", "page", "cycling", "14", "24", "rate", "view", "3", "plan", "19", "20", "walking", "priority", "12", "10", "27", "4", "7", "zone", "11", "8", "smarter", "stations", "choice", "9", "option", "22", "23", "parking"], "target_words": ["area", "killing", "drop", "region", "zone", "zonary", "part", "dropping", "combat", "feature", "kill", "danger", "strike", "DMZ", "buffer", "demilitarized", "tidal"], "overlap": ["zone"]}, "zone.n.04": {"source_words": ["goal", "pay", "//www.surrey.ca/city-services/4789.aspx", "number", "travel", "5", "25", "vision", "information", "location", "station", "1", "department", "15", "surrey", "transit", "transportation", "28", "city", "driving", "21", "please", "6", "2", "proposal", "26", "page", "cycling", "14", "24", "rate", "view", "3", "plan", "19", "20", "walking", "priority", "12", "10", "27", "4", "7", "zone", "11", "8", "smarter", "stations", "choice", "9", "option", "22", "23", "parking"], "target_words": ["general", "complex", "anatomical", "zone", "zonula", "part", "zonule", "anatomy", "bodily", "body", "encircling", "beltlike", "structure", "zona", "pellucida"], "overlap": ["zone"]}}], [{"number.n.01": {"syn_name": "number.n.01", "expl": ["he had a number of chores to do", "the number of parameters is small", "the figure was about a thousand"], "defn": "the property possessed by a sum or total or indefinite quantity of units or individuals", "hyper": ["amount.n.02", "magnitude.n.01", "property.n.02", "attribute.n.02", "abstraction.n.06", "entity.n.01"], "hypo": ["fewness.n.01", "innumerableness.n.01", "majority.n.01", "minority.n.02", "numerousness.n.01", "preponderance.n.02", "roundness.n.02", "multitudinousness.n.01"], "hyper_num_depth1": 1, "hypo_num_depth1": 7, "topic_dom": [], "region_dom": [], "usage_dom": [], "lemmas": ["number.n.01.number", "number.n.01.figure"], "lem_deriv_rel": ["number.n.01.number", "number.n.01.number", "number.n.01.number", "number.n.01.number", "number.n.01.number", "number.n.01.figure"], "anto": []}, "number.n.02": {"syn_name": "number.n.02", "expl": ["every number has a unique position in the sequence"], "defn": "a concept of quantity involving zero and units", "hyper": ["definite_quantity.n.01", "measure.n.02", "abstraction.n.06", "entity.n.01"], "hypo": ["addend.n.01", "arity.n.01", "atomic_number.n.01", "augend.n.01", "baryon_number.n.01", "base.n.13", "biquadrate.n.01", "cardinal_number.n.01", "cardinality.n.01", "complex_number.n.01", "composite_number.n.01", "compound_number.n.01", "constant.n.02", "coordinate.n.01", "count.n.01", "cube.n.03", "decimal.n.02", "dividend.n.02", "divisor.n.02", "factor.n.05", "fibonacci_number.n.01", "fixed-point_number.n.01", "floating-point_number.n.01", "integer.n.01", "linage.n.01", "minuend.n.01", "multiplicand.n.01", "multiplier.n.01", "natural_number.n.01", "ordinal_number.n.01", "oxidation_number.n.01", "pagination.n.01", "prime.n.01", "quota.n.01", "quotient.n.02", "record.n.03", "remainder.n.02", "remainder.n.03", "root.n.04", "score.n.03", "square.n.02", "subtrahend.n.01", "magic_number.n.01", "frequency.n.03", "googol.n.01", "googolplex.n.01", "complex_conjugate.n.01", "pure_imaginary_number.n.01", "real_number.n.01", "avogadro's_number.n.01", "boltzmann's_constant.n.01", "coefficient.n.01", "cosmological_constant.n.01", "equilibrium_constant.n.01", "factor_of_proportionality.n.01", "gas_constant.n.01", "gravitational_constant.n.01", "hubble's_constant.n.01", "ionic_charge.n.01", "speed_of_light.n.01", "cartesian_coordinate.n.01", "polar_coordinate.n.01", "blood_count.n.01", "body_count.n.01", "circulation.n.03", "circulation.n.04", "complement.n.02", "head_count.n.01", "pollen_count.n.01", "sperm_count.n.01", "numerator.n.01", "aliquant.n.01", "aliquot.n.01", "denominator.n.01", "conversion_factor.n.01", "deflator.n.01", "characteristic.n.03", "common_multiple.n.01", "digit.n.01", "divisor.n.01", "double_digit.n.01", "large_integer.n.01", "modulus.n.01", "population.n.04", "scale_factor.n.01", "first.n.02", "prime_number.n.01", "balance.n.06", "cube_root.n.01", "square_root.n.01", "baseball_score.n.01", "basketball_score.n.01", "birdie.n.01", "bogey.n.02", "bowling_score.n.01", "deficit.n.03", "double-bogey.n.01", "double_eagle.n.01", "duck.n.02", "eagle.n.02", "football_score.n.01", "game.n.06", "lead.n.07", "love.n.05", "match.n.05", "par.n.01", "stroke.n.06", "imaginary_part.n.01", "irrational_number.n.01", "rational_number.n.01", "scalar_product.n.01", "absorption_coefficient.n.01", "coefficient_of_expansion.n.01", "coefficient_of_friction.n.01", "coefficient_of_mutual_induction.n.01", "coefficient_of_reflection.n.01", "coefficient_of_self_induction.n.01", "coefficient_of_viscosity.n.01", "drag_coefficient.n.01", "modulus.n.03", "transmittance.n.01", "weight.n.08", "dissociation_constant.n.01", "planck's_constant.n.01", "abscissa.n.01", "dimension.n.03", "ordinate.n.01", "common_denominator.n.01", "binary_digit.n.01", "decimal_digit.n.01", "duodecimal_digit.n.01", "eight.n.01", "five.n.01", "four.n.01", "hexadecimal_digit.n.01", "nine.n.01", "octal_digit.n.01", "one.n.01", "seven.n.01", "significant_digit.n.01", "six.n.01", "three.n.01", "two.n.01", "zero.n.02", "common_divisor.n.01", "equivalent-binary-digit_factor.n.01", "prime_factor.n.01", "aleph-null.n.01", "billion.n.01", "billion.n.03", "crore.n.01", "eighteen.n.01", "eighty.n.01", "eleven.n.01", "fifteen.n.01", "fifty.n.01", "five_hundred.n.01", "forty.n.01", "fourteen.n.01", "great_gross.n.01", "gross.n.01", "hundred.n.01", "hundred_thousand.n.01", "long_hundred.n.01", "million.n.01", "nineteen.n.01", "ninety.n.01", "octillion.n.01", "quadrillion.n.01", "quadrillion.n.02", "quintillion.n.01", "septillion.n.01", "seventeen.n.01", "seventy-eight.n.01", "seventy.n.01", "sextillion.n.01", "sixteen.n.01", "sixty.n.01", "teens.n.02", "ten.n.01", "ten_thousand.n.01", "thirteen.n.01", "thirty.n.01", "thousand.n.01", "trillion.n.02", "trillion.n.03", "twelve.n.01", "twenty-eight.n.01", "twenty-five.n.01", "twenty-four.n.01", "twenty-nine.n.01", "twenty-one.n.01", "twenty-seven.n.01", "twenty-six.n.01", "twenty-three.n.01", "twenty-two.n.01", "twenty.n.01", "time-scale_factor.n.01", "balance_of_trade.n.01", "carry-over.n.02", "compensating_balance.n.01", "invisible_balance.n.01", "algebraic_number.n.01", "transcendental_number.n.01", "fraction.n.03", "coefficient_of_elasticity.n.01", "monad.n.02", "singleton.n.01", "couple.n.04", "craps.n.01", "greatest_common_divisor.n.01", "milliard.n.01", "millenary.n.03", "boxcars.n.01", "e.n.04", "pi.n.01", "common_fraction.n.01", "complex_fraction.n.01", "continued_fraction.n.01", "improper_fraction.n.01", "mantissa.n.01", "proper_fraction.n.01", "bulk_modulus.n.01", "modulus_of_rigidity.n.01", "young's_modulus.n.01", "mate.n.06", "doubleton.n.01", "one-billionth.n.01", "one-eighth.n.01", "one-fifth.n.01", "one-fourth.n.01", "one-half.n.01", "one-hundred-millionth.n.01", "one-hundred-thousandth.n.01", "one-hundredth.n.01", "one-millionth.n.01", "one-ninth.n.01", "one-quadrillionth.n.01", "one-quintillionth.n.01", "one-seventh.n.01", "one-sixteenth.n.01", "one-sixth.n.01", "one-sixtieth.n.01", "one-sixty-fourth.n.01", "one-ten-thousandth.n.01", "one-tenth.n.01", "one-third.n.01", "one-thirty-second.n.01", "one-thousandth.n.01", "one-trillionth.n.01", "one-twelfth.n.01", "three-fourths.n.01", "two-thirds.n.01", "decimal_fraction.n.01", "fifty_percent.n.01", "moiety.n.01", "circulating_decimal.n.01"], "hyper_num_depth1": 1, "hypo_num_depth1": 42, "topic_dom": [], "region_dom": [], "usage_dom": [], "lemmas": ["number.n.02.number"], "lem_deriv_rel": ["number.n.02.numerical", "number.n.02.number", "number.n.02.number", "number.n.02.number", "number.n.02.number", "number.n.02.number"], "anto": []}, "act.n.04": {"syn_name": "act.n.04", "expl": ["he did his act three times every evening", "she had a catchy little routine", "it was one of the best numbers he ever did"], "defn": "a short theatrical performance that is part of a longer program", "hyper": ["performance.n.01", "show.n.03", "social_event.n.01", "event.n.01", "psychological_feature.n.01", "abstraction.n.06", "entity.n.01"], "hypo": ["show-stopper.n.01"], "hyper_num_depth1": 1, "hypo_num_depth1": 1, "topic_dom": [], "region_dom": [], "usage_dom": [], "lemmas": ["act.n.04.act", "act.n.04.routine", "act.n.04.number", "act.n.04.turn", "act.n.04.bit"], "lem_deriv_rel": ["act.n.04.act", "act.n.04.act", "act.n.04.act"], "anto": []}, "phone_number.n.01": {"syn_name": "phone_number.n.01", "expl": ["he has an unlisted number"], "defn": "the number is used in calling a particular telephone", "hyper": ["signal.n.01", "communication.n.02", "abstraction.n.06", "entity.n.01"], "hypo": [], "hyper_num_depth1": 1, "hypo_num_depth1": 0, "topic_dom": [], "region_dom": [], "usage_dom": [], "lemmas": ["phone_number.n.01.phone_number", "phone_number.n.01.telephone_number", "phone_number.n.01.number"], "lem_deriv_rel": [], "anto": []}, "numeral.n.01": {"syn_name": "numeral.n.01", "expl": ["he learned to write the numerals before he went to school"], "defn": "a symbol used to represent a number", "hyper": ["symbol.n.01", "signal.n.01", "communication.n.02", "abstraction.n.06", "entity.n.01"], "hypo": ["antilogarithm.n.01", "arabic_numeral.n.01", "roman_numeral.n.01"], "hyper_num_depth1": 1, "hypo_num_depth1": 3, "topic_dom": [], "region_dom": [], "usage_dom": [], "lemmas": ["numeral.n.01.numeral", "numeral.n.01.number"], "lem_deriv_rel": ["numeral.n.01.number", "numeral.n.01.number", "numeral.n.01.number", "numeral.n.01.number", "numeral.n.01.number"], "anto": []}, "issue.n.02": {"syn_name": "issue.n.02", "expl": ["she found an old issue of the magazine in her dentist's waiting room"], "defn": "one of a series published periodically", "hyper": ["periodical.n.01", "publication.n.01", "work.n.02", "product.n.02", "creation.n.02", "artifact.n.01", "whole.n.02", "object.n.01", "physical_entity.n.01", "entity.n.01"], "hypo": ["edition.n.03", "extra.n.02"], "hyper_num_depth1": 1, "hypo_num_depth1": 1, "topic_dom": [], "region_dom": [], "usage_dom": [], "lemmas": ["issue.n.02.issue", "issue.n.02.number"], "lem_deriv_rel": ["issue.n.02.issue"], "anto": []}, "number.n.07": {"syn_name": "number.n.07", "expl": ["I hope to become one of their number before I die"], "defn": "a select company of people", "hyper": ["company.n.06", "social_gathering.n.01", "gathering.n.01", "social_group.n.01", "group.n.01", "abstraction.n.06", "entity.n.01"], "hypo": [], "hyper_num_depth1": 1, "hypo_num_depth1": 0, "topic_dom": [], "region_dom": [], "usage_dom": [], "lemmas": ["number.n.07.number"], "lem_deriv_rel": ["number.n.07.number"], "anto": []}, "number.n.08": {"syn_name": "number.n.08", "expl": ["she refused to give them her Social Security number"], "defn": "a numeral or string of numerals that is used for identification", "hyper": ["positive_identification.n.01", "identification.n.02", "evidence.n.02", "indication.n.01", "communication.n.02", "abstraction.n.06", "entity.n.01"], "hypo": ["bank_identification_number.n.01", "license_number.n.01", "personal_identification_number.n.01", "social_security_number.n.01"], "hyper_num_depth1": 1, "hypo_num_depth1": 4, "topic_dom": [], "region_dom": [], "usage_dom": [], "lemmas": ["number.n.08.number", "number.n.08.identification_number"], "lem_deriv_rel": ["number.n.08.number", "number.n.08.number", "number.n.08.number", "number.n.08.number"], "anto": []}, "number.n.09": {"syn_name": "number.n.09", "expl": ["a number 13 shoe"], "defn": "a clothing measurement", "hyper": ["size.n.02", "property.n.02", "attribute.n.02", "abstraction.n.06", "entity.n.01"], "hypo": [], "hyper_num_depth1": 1, "hypo_num_depth1": 0, "topic_dom": [], "region_dom": [], "usage_dom": ["colloquialism.n.01"], "lemmas": ["number.n.09.number"], "lem_deriv_rel": [], "anto": []}, "number.n.10": {"syn_name": "number.n.10", "expl": ["in English the subject and the verb must agree in number"], "defn": "the grammatical category for the forms of nouns and pronouns and verbs that are used depending on the number of entities involved (singular or dual or plural)", "hyper": ["grammatical_category.n.01", "class.n.01", "collection.n.01", "group.n.01", "abstraction.n.06", "entity.n.01"], "hypo": [], "hyper_num_depth1": 1, "hypo_num_depth1": 0, "topic_dom": [], "region_dom": [], "usage_dom": [], "lemmas": ["number.n.10.number"], "lem_deriv_rel": [], "anto": []}, "number.n.11": {"syn_name": "number.n.11", "expl": ["she preferred the black nylon number", "this sweater is an all-wool number"], "defn": "an item of merchandise offered for sale", "hyper": ["merchandise.n.01", "commodity.n.01", "artifact.n.01", "whole.n.02", "object.n.01", "physical_entity.n.01", "entity.n.01"], "hypo": [], "hyper_num_depth1": 1, "hypo_num_depth1": 0, "topic_dom": [], "region_dom": [], "usage_dom": [], "lemmas": ["number.n.11.number"], "lem_deriv_rel": [], "anto": []}}, {"number.n.01": {"source_words": ["goal", "pay", "//www.surrey.ca/city-services/4789.aspx", "number", "travel", "5", "25", "vision", "information", "location", "station", "1", "department", "15", "surrey", "transit", "transportation", "28", "city", "driving", "21", "please", "6", "2", "proposal", "26", "page", "cycling", "14", "24", "rate", "view", "3", "plan", "19", "20", "walking", "priority", "12", "10", "27", "4", "7", "zone", "11", "8", "smarter", "stations", "choice", "9", "option", "22", "23", "parking"], "target_words": ["innumerableness", "number", "numerousness", "roundness", "property", "numerosity", "parameter", "countlessness", "sum", "thousand", "individual", "minority", "unit", "figure", "bulk", "preponderance", "quantity", "fewness", "majority", "multiplicity", "chore", "amount", "prevalence"], "overlap": ["number"]}, "number.n.02": {"source_words": ["goal", "pay", "//www.surrey.ca/city-services/4789.aspx", "number", "travel", "5", "25", "vision", "information", "location", "station", "1", "department", "15", "surrey", "transit", "transportation", "28", "city", "driving", "21", "please", "6", "2", "proposal", "26", "page", "cycling", "14", "24", "rate", "view", "3", "plan", "19", "20", "walking", "priority", "12", "10", "27", "4", "7", "zone", "11", "8", "smarter", "stations", "choice", "9", "option", "22", "23", "parking"], "target_words": ["complex", "prime", "third", "count", "number", "multiplier", "numerical", "atomic", "Fibonacci", "natural", "cardinal", "fixed-point", "baryon", "biquadrate", "sequence", "definite", "cardinality", "quota", "no", "folio", "remainder", "minuend", "pagination", "radix", "subtrahend", "co-ordinate", "fourth", "biquadratic", "multiplicand", "square", "cube", "constant", "power", "addend", "augend", "state", "dividend", "paging", "arity", "compound", "linage", "unit", "page", "quotient", "divisor", "second", "lineage", "decimal", "quantity", ".", "quartic", "score", "position", "factor", "integer", "difference", "coordinate", "concept", "floating-point", "base", "ordinal", "oxidation", "imaginary", "composite", "whole", "root", "record"], "overlap": ["page", "number"]}, "act.n.04": {"source_words": ["goal", "pay", "//www.surrey.ca/city-services/4789.aspx", "number", "travel", "5", "25", "vision", "information", "location", "station", "1", "department", "15", "surrey", "transit", "transportation", "28", "city", "driving", "21", "please", "6", "2", "proposal", "26", "page", "cycling", "14", "24", "rate", "view", "3", "plan", "19", "20", "walking", "priority", "12", "10", "27", "4", "7", "zone", "11", "8", "smarter", "stations", "choice", "9", "option", "22", "23", "parking"], "target_words": ["act", "program", "time", "showstopper", "number", "turn", "performance", "part", "evening", "presentation", "bit", "show-stopper", "public", "stopper", "routine"], "overlap": ["number"]}, "phone_number.n.01": {"source_words": ["goal", "pay", "//www.surrey.ca/city-services/4789.aspx", "number", "travel", "5", "25", "vision", "information", "location", "station", "1", "department", "15", "surrey", "transit", "transportation", "28", "city", "driving", "21", "please", "6", "2", "proposal", "26", "page", "cycling", "14", "24", "rate", "view", "3", "plan", "19", "20", "walking", "priority", "12", "10", "27", "4", "7", "zone", "11", "8", "smarter", "stations", "choice", "9", "option", "22", "23", "parking"], "target_words": ["telephone", "number", "signal", "sign", "signaling", "phone"], "overlap": ["number"]}, "numeral.n.01": {"source_words": ["goal", "pay", "//www.surrey.ca/city-services/4789.aspx", "number", "travel", "5", "25", "vision", "information", "location", "station", "1", "department", "15", "surrey", "transit", "transportation", "28", "city", "driving", "21", "please", "6", "2", "proposal", "26", "page", "cycling", "14", "24", "rate", "view", "3", "plan", "19", "20", "walking", "priority", "12", "10", "27", "4", "7", "zone", "11", "8", "smarter", "stations", "choice", "9", "option", "22", "23", "parking"], "target_words": ["antilog", "Hindu-Arabic", "Roman", "Hindu", "number", "school", "Arabic", "antilogarithm", "numeral", "symbol"], "overlap": ["number"]}, "issue.n.02": {"source_words": ["goal", "pay", "//www.surrey.ca/city-services/4789.aspx", "number", "travel", "5", "25", "vision", "information", "location", "station", "1", "department", "15", "surrey", "transit", "transportation", "28", "city", "driving", "21", "please", "6", "2", "proposal", "26", "page", "cycling", "14", "24", "rate", "view", "3", "plan", "19", "20", "walking", "priority", "12", "10", "27", "4", "7", "zone", "11", "8", "smarter", "stations", "choice", "9", "option", "22", "23", "parking"], "target_words": ["waiting", "issue", "edition", "series", "number", "magazine", "periodical", "dentist", "room"], "overlap": ["number"]}, "number.n.07": {"source_words": ["goal", "pay", "//www.surrey.ca/city-services/4789.aspx", "number", "travel", "5", "25", "vision", "information", "location", "station", "1", "department", "15", "surrey", "transit", "transportation", "28", "city", "driving", "21", "please", "6", "2", "proposal", "26", "page", "cycling", "14", "24", "rate", "view", "3", "plan", "19", "20", "walking", "priority", "12", "10", "27", "4", "7", "zone", "11", "8", "smarter", "stations", "choice", "9", "option", "22", "23", "parking"], "target_words": ["number", "people", "company"], "overlap": ["number"]}, "number.n.08": {"source_words": ["goal", "pay", "//www.surrey.ca/city-services/4789.aspx", "number", "travel", "5", "25", "vision", "information", "location", "station", "1", "department", "15", "surrey", "transit", "transportation", "28", "city", "driving", "21", "please", "6", "2", "proposal", "26", "page", "cycling", "14", "24", "rate", "view", "3", "plan", "19", "20", "walking", "priority", "12", "10", "27", "4", "7", "zone", "11", "8", "smarter", "stations", "choice", "9", "option", "22", "23", "parking"], "target_words": ["BIN", "string", "number", "identification", "transit", "license", "bank", "ABA", "positive", "numeral", "registration", "personal", "PIN", "Security", "Social"], "overlap": ["transit", "number"]}, "number.n.09": {"source_words": ["goal", "pay", "//www.surrey.ca/city-services/4789.aspx", "number", "travel", "5", "25", "vision", "information", "location", "station", "1", "department", "15", "surrey", "transit", "transportation", "28", "city", "driving", "21", "please", "6", "2", "proposal", "26", "page", "cycling", "14", "24", "rate", "view", "3", "plan", "19", "20", "walking", "priority", "12", "10", "27", "4", "7", "zone", "11", "8", "smarter", "stations", "choice", "9", "option", "22", "23", "parking"], "target_words": ["measurement", "number", "colloquialism", "size", "clothing", "shoe"], "overlap": ["number"]}, "number.n.10": {"source_words": ["goal", "pay", "//www.surrey.ca/city-services/4789.aspx", "number", "travel", "5", "25", "vision", "information", "location", "station", "1", "department", "15", "surrey", "transit", "transportation", "28", "city", "driving", "21", "please", "6", "2", "proposal", "26", "page", "cycling", "14", "24", "rate", "view", "3", "plan", "19", "20", "walking", "priority", "12", "10", "27", "4", "7", "zone", "11", "8", "smarter", "stations", "choice", "9", "option", "22", "23", "parking"], "target_words": ["entity", "number", "form", "category", "noun", "grammatical", "syntactic", "pronoun", "subject", "verb", "English"], "overlap": ["number"]}, "number.n.11": {"source_words": ["goal", "pay", "//www.surrey.ca/city-services/4789.aspx", "number", "travel", "5", "25", "vision", "information", "location", "station", "1", "department", "15", "surrey", "transit", "transportation", "28", "city", "driving", "21", "please", "6", "2", "proposal", "26", "page", "cycling", "14", "24", "rate", "view", "3", "plan", "19", "20", "walking", "priority", "12", "10", "27", "4", "7", "zone", "11", "8", "smarter", "stations", "choice", "9", "option", "22", "23", "parking"], "target_words": ["merchandise", "number", "ware", "nylon", "sweater", "product", "item", "sale"], "overlap": ["number"]}}]]]