[{"dataset_name": [["pay", "parking", "stations"]], "topic": ["number", "spaces"], "topic_singl": ["number", "space"], "desc": ["transportation", "department", "transportation", "option", "driving", "cycling", "walking", "transit", "smarter", "travel", "choice", "surrey", "transportation", "plan", "//www.surrey.ca/city-services/4789.aspx", "vision", "goal", "proposal", "priority", "transportation", "city"], "notes": ["location", "pay", "parking", "surrey", "parking", "rate", "station", "information", "please", "city", "pay", "page", "view"], "other_topics": ["10", "107", "111", "12", "125", "128", "2", "222", "24", "26", "3", "30", "31", "39", "40", "42", "45", "50", "53", "59", "61", "62", "7", "76", "834", "9"]}, [[{"number.n.01": {"syn_name": "number.n.01", "expl": ["he had a number of chores to do", "the number of parameters is small", "the figure was about a thousand"], "defn": "the property possessed by a sum or total or indefinite quantity of units or individuals", "hyper": ["amount.n.02", "magnitude.n.01", "property.n.02", "attribute.n.02", "abstraction.n.06", "entity.n.01"], "hypo": ["fewness.n.01", "innumerableness.n.01", "majority.n.01", "minority.n.02", "numerousness.n.01", "preponderance.n.02", "roundness.n.02", "multitudinousness.n.01"], "hyper_num_depth1": 1, "hypo_num_depth1": 7, "topic_dom": [], "region_dom": [], "usage_dom": [], "lemmas": ["number.n.01.number", "number.n.01.figure"], "lem_deriv_rel": ["number.n.01.number", "number.n.01.number", "number.n.01.number", "number.n.01.number", "number.n.01.number", "number.n.01.figure"], "anto": []}, "number.n.02": {"syn_name": "number.n.02", "expl": ["every number has a unique position in the sequence"], "defn": "a concept of quantity involving zero and units", "hyper": ["definite_quantity.n.01", "measure.n.02", "abstraction.n.06", "entity.n.01"], "hypo": ["addend.n.01", "arity.n.01", "atomic_number.n.01", "augend.n.01", "baryon_number.n.01", "base.n.13", "biquadrate.n.01", "cardinal_number.n.01", "cardinality.n.01", "complex_number.n.01", "composite_number.n.01", "compound_number.n.01", "constant.n.02", "coordinate.n.01", "count.n.01", "cube.n.03", "decimal.n.02", "dividend.n.02", "divisor.n.02", "factor.n.05", "fibonacci_number.n.01", "fixed-point_number.n.01", "floating-point_number.n.01", "integer.n.01", "linage.n.01", "minuend.n.01", "multiplicand.n.01", "multiplier.n.01", "natural_number.n.01", "ordinal_number.n.01", "oxidation_number.n.01", "pagination.n.01", "prime.n.01", "quota.n.01", "quotient.n.02", "record.n.03", "remainder.n.02", "remainder.n.03", "root.n.04", "score.n.03", "square.n.02", "subtrahend.n.01", "magic_number.n.01", "frequency.n.03", "googol.n.01", "googolplex.n.01", "complex_conjugate.n.01", "pure_imaginary_number.n.01", "real_number.n.01", "avogadro's_number.n.01", "boltzmann's_constant.n.01", "coefficient.n.01", "cosmological_constant.n.01", "equilibrium_constant.n.01", "factor_of_proportionality.n.01", "gas_constant.n.01", "gravitational_constant.n.01", "hubble's_constant.n.01", "ionic_charge.n.01", "speed_of_light.n.01", "cartesian_coordinate.n.01", "polar_coordinate.n.01", "blood_count.n.01", "body_count.n.01", "circulation.n.03", "circulation.n.04", "complement.n.02", "head_count.n.01", "pollen_count.n.01", "sperm_count.n.01", "numerator.n.01", "aliquant.n.01", "aliquot.n.01", "denominator.n.01", "conversion_factor.n.01", "deflator.n.01", "characteristic.n.03", "common_multiple.n.01", "digit.n.01", "divisor.n.01", "double_digit.n.01", "large_integer.n.01", "modulus.n.01", "population.n.04", "scale_factor.n.01", "first.n.02", "prime_number.n.01", "balance.n.06", "cube_root.n.01", "square_root.n.01", "baseball_score.n.01", "basketball_score.n.01", "birdie.n.01", "bogey.n.02", "bowling_score.n.01", "deficit.n.03", "double-bogey.n.01", "double_eagle.n.01", "duck.n.02", "eagle.n.02", "football_score.n.01", "game.n.06", "lead.n.07", "love.n.05", "match.n.05", "par.n.01", "stroke.n.06", "imaginary_part.n.01", "irrational_number.n.01", "rational_number.n.01", "scalar_product.n.01", "absorption_coefficient.n.01", "coefficient_of_expansion.n.01", "coefficient_of_friction.n.01", "coefficient_of_mutual_induction.n.01", "coefficient_of_reflection.n.01", "coefficient_of_self_induction.n.01", "coefficient_of_viscosity.n.01", "drag_coefficient.n.01", "modulus.n.03", "transmittance.n.01", "weight.n.08", "dissociation_constant.n.01", "planck's_constant.n.01", "abscissa.n.01", "dimension.n.03", "ordinate.n.01", "common_denominator.n.01", "binary_digit.n.01", "decimal_digit.n.01", "duodecimal_digit.n.01", "eight.n.01", "five.n.01", "four.n.01", "hexadecimal_digit.n.01", "nine.n.01", "octal_digit.n.01", "one.n.01", "seven.n.01", "significant_digit.n.01", "six.n.01", "three.n.01", "two.n.01", "zero.n.02", "common_divisor.n.01", "equivalent-binary-digit_factor.n.01", "prime_factor.n.01", "aleph-null.n.01", "billion.n.01", "billion.n.03", "crore.n.01", "eighteen.n.01", "eighty.n.01", "eleven.n.01", "fifteen.n.01", "fifty.n.01", "five_hundred.n.01", "forty.n.01", "fourteen.n.01", "great_gross.n.01", "gross.n.01", "hundred.n.01", "hundred_thousand.n.01", "long_hundred.n.01", "million.n.01", "nineteen.n.01", "ninety.n.01", "octillion.n.01", "quadrillion.n.01", "quadrillion.n.02", "quintillion.n.01", "septillion.n.01", "seventeen.n.01", "seventy-eight.n.01", "seventy.n.01", "sextillion.n.01", "sixteen.n.01", "sixty.n.01", "teens.n.02", "ten.n.01", "ten_thousand.n.01", "thirteen.n.01", "thirty.n.01", "thousand.n.01", "trillion.n.02", "trillion.n.03", "twelve.n.01", "twenty-eight.n.01", "twenty-five.n.01", "twenty-four.n.01", "twenty-nine.n.01", "twenty-one.n.01", "twenty-seven.n.01", "twenty-six.n.01", "twenty-three.n.01", "twenty-two.n.01", "twenty.n.01", "time-scale_factor.n.01", "balance_of_trade.n.01", "carry-over.n.02", "compensating_balance.n.01", "invisible_balance.n.01", "algebraic_number.n.01", "transcendental_number.n.01", "fraction.n.03", "coefficient_of_elasticity.n.01", "monad.n.02", "singleton.n.01", "couple.n.04", "craps.n.01", "greatest_common_divisor.n.01", "milliard.n.01", "millenary.n.03", "boxcars.n.01", "e.n.04", "pi.n.01", "common_fraction.n.01", "complex_fraction.n.01", "continued_fraction.n.01", "improper_fraction.n.01", "mantissa.n.01", "proper_fraction.n.01", "bulk_modulus.n.01", "modulus_of_rigidity.n.01", "young's_modulus.n.01", "mate.n.06", "doubleton.n.01", "one-billionth.n.01", "one-eighth.n.01", "one-fifth.n.01", "one-fourth.n.01", "one-half.n.01", "one-hundred-millionth.n.01", "one-hundred-thousandth.n.01", "one-hundredth.n.01", "one-millionth.n.01", "one-ninth.n.01", "one-quadrillionth.n.01", "one-quintillionth.n.01", "one-seventh.n.01", "one-sixteenth.n.01", "one-sixth.n.01", "one-sixtieth.n.01", "one-sixty-fourth.n.01", "one-ten-thousandth.n.01", "one-tenth.n.01", "one-third.n.01", "one-thirty-second.n.01", "one-thousandth.n.01", "one-trillionth.n.01", "one-twelfth.n.01", "three-fourths.n.01", "two-thirds.n.01", "decimal_fraction.n.01", "fifty_percent.n.01", "moiety.n.01", "circulating_decimal.n.01"], "hyper_num_depth1": 1, "hypo_num_depth1": 42, "topic_dom": [], "region_dom": [], "usage_dom": [], "lemmas": ["number.n.02.number"], "lem_deriv_rel": ["number.n.02.numerical", "number.n.02.number", "number.n.02.number", "number.n.02.number", "number.n.02.number", "number.n.02.number"], "anto": []}, "act.n.04": {"syn_name": "act.n.04", "expl": ["he did his act three times every evening", "she had a catchy little routine", "it was one of the best numbers he ever did"], "defn": "a short theatrical performance that is part of a longer program", "hyper": ["performance.n.01", "show.n.03", "social_event.n.01", "event.n.01", "psychological_feature.n.01", "abstraction.n.06", "entity.n.01"], "hypo": ["show-stopper.n.01"], "hyper_num_depth1": 1, "hypo_num_depth1": 1, "topic_dom": [], "region_dom": [], "usage_dom": [], "lemmas": ["act.n.04.act", "act.n.04.routine", "act.n.04.number", "act.n.04.turn", "act.n.04.bit"], "lem_deriv_rel": ["act.n.04.act", "act.n.04.act", "act.n.04.act"], "anto": []}, "phone_number.n.01": {"syn_name": "phone_number.n.01", "expl": ["he has an unlisted number"], "defn": "the number is used in calling a particular telephone", "hyper": ["signal.n.01", "communication.n.02", "abstraction.n.06", "entity.n.01"], "hypo": [], "hyper_num_depth1": 1, "hypo_num_depth1": 0, "topic_dom": [], "region_dom": [], "usage_dom": [], "lemmas": ["phone_number.n.01.phone_number", "phone_number.n.01.telephone_number", "phone_number.n.01.number"], "lem_deriv_rel": [], "anto": []}, "numeral.n.01": {"syn_name": "numeral.n.01", "expl": ["he learned to write the numerals before he went to school"], "defn": "a symbol used to represent a number", "hyper": ["symbol.n.01", "signal.n.01", "communication.n.02", "abstraction.n.06", "entity.n.01"], "hypo": ["antilogarithm.n.01", "arabic_numeral.n.01", "roman_numeral.n.01"], "hyper_num_depth1": 1, "hypo_num_depth1": 3, "topic_dom": [], "region_dom": [], "usage_dom": [], "lemmas": ["numeral.n.01.numeral", "numeral.n.01.number"], "lem_deriv_rel": ["numeral.n.01.number", "numeral.n.01.number", "numeral.n.01.number", "numeral.n.01.number", "numeral.n.01.number"], "anto": []}, "issue.n.02": {"syn_name": "issue.n.02", "expl": ["she found an old issue of the magazine in her dentist's waiting room"], "defn": "one of a series published periodically", "hyper": ["periodical.n.01", "publication.n.01", "work.n.02", "product.n.02", "creation.n.02", "artifact.n.01", "whole.n.02", "object.n.01", "physical_entity.n.01", "entity.n.01"], "hypo": ["edition.n.03", "extra.n.02"], "hyper_num_depth1": 1, "hypo_num_depth1": 1, "topic_dom": [], "region_dom": [], "usage_dom": [], "lemmas": ["issue.n.02.issue", "issue.n.02.number"], "lem_deriv_rel": ["issue.n.02.issue"], "anto": []}, "number.n.07": {"syn_name": "number.n.07", "expl": ["I hope to become one of their number before I die"], "defn": "a select company of people", "hyper": ["company.n.06", "social_gathering.n.01", "gathering.n.01", "social_group.n.01", "group.n.01", "abstraction.n.06", "entity.n.01"], "hypo": [], "hyper_num_depth1": 1, "hypo_num_depth1": 0, "topic_dom": [], "region_dom": [], "usage_dom": [], "lemmas": ["number.n.07.number"], "lem_deriv_rel": ["number.n.07.number"], "anto": []}, "number.n.08": {"syn_name": "number.n.08", "expl": ["she refused to give them her Social Security number"], "defn": "a numeral or string of numerals that is used for identification", "hyper": ["positive_identification.n.01", "identification.n.02", "evidence.n.02", "indication.n.01", "communication.n.02", "abstraction.n.06", "entity.n.01"], "hypo": ["bank_identification_number.n.01", "license_number.n.01", "personal_identification_number.n.01", "social_security_number.n.01"], "hyper_num_depth1": 1, "hypo_num_depth1": 4, "topic_dom": [], "region_dom": [], "usage_dom": [], "lemmas": ["number.n.08.number", "number.n.08.identification_number"], "lem_deriv_rel": ["number.n.08.number", "number.n.08.number", "number.n.08.number", "number.n.08.number"], "anto": []}, "number.n.09": {"syn_name": "number.n.09", "expl": ["a number 13 shoe"], "defn": "a clothing measurement", "hyper": ["size.n.02", "property.n.02", "attribute.n.02", "abstraction.n.06", "entity.n.01"], "hypo": [], "hyper_num_depth1": 1, "hypo_num_depth1": 0, "topic_dom": [], "region_dom": [], "usage_dom": ["colloquialism.n.01"], "lemmas": ["number.n.09.number"], "lem_deriv_rel": [], "anto": []}, "number.n.10": {"syn_name": "number.n.10", "expl": ["in English the subject and the verb must agree in number"], "defn": "the grammatical category for the forms of nouns and pronouns and verbs that are used depending on the number of entities involved (singular or dual or plural)", "hyper": ["grammatical_category.n.01", "class.n.01", "collection.n.01", "group.n.01", "abstraction.n.06", "entity.n.01"], "hypo": [], "hyper_num_depth1": 1, "hypo_num_depth1": 0, "topic_dom": [], "region_dom": [], "usage_dom": [], "lemmas": ["number.n.10.number"], "lem_deriv_rel": [], "anto": []}, "number.n.11": {"syn_name": "number.n.11", "expl": ["she preferred the black nylon number", "this sweater is an all-wool number"], "defn": "an item of merchandise offered for sale", "hyper": ["merchandise.n.01", "commodity.n.01", "artifact.n.01", "whole.n.02", "object.n.01", "physical_entity.n.01", "entity.n.01"], "hypo": [], "hyper_num_depth1": 1, "hypo_num_depth1": 0, "topic_dom": [], "region_dom": [], "usage_dom": [], "lemmas": ["number.n.11.number"], "lem_deriv_rel": [], "anto": []}}, {"number.n.01": {"source_words": ["30", "goal", "pay", "31", "//www.surrey.ca/city-services/4789.aspx", "number", "travel", "53", "vision", "information", "222", "location", "station", "62", "spaces", "76", "834", "128", "department", "surrey", "42", "transit", "transportation", "city", "driving", "107", "39", "please", "2", "proposal", "26", "page", "40", "cycling", "24", "rate", "view", "3", "space", "plan", "walking", "priority", "12", "10", "7", "111", "59", "50", "smarter", "stations", "choice", "61", "45", "9", "option", "125", "parking"], "target_words": ["innumerableness", "number", "numerousness", "roundness", "property", "numerosity", "parameter", "countlessness", "sum", "thousand", "individual", "minority", "unit", "figure", "bulk", "preponderance", "quantity", "fewness", "majority", "multiplicity", "chore", "amount", "prevalence"], "overlap": ["number"]}, "number.n.02": {"source_words": ["30", "goal", "pay", "31", "//www.surrey.ca/city-services/4789.aspx", "number", "travel", "53", "vision", "information", "222", "location", "station", "62", "spaces", "76", "834", "128", "department", "surrey", "42", "transit", "transportation", "city", "driving", "107", "39", "please", "2", "proposal", "26", "page", "40", "cycling", "24", "rate", "view", "3", "space", "plan", "walking", "priority", "12", "10", "7", "111", "59", "50", "smarter", "stations", "choice", "61", "45", "9", "option", "125", "parking"], "target_words": ["complex", "prime", "third", "count", "number", "multiplier", "numerical", "atomic", "Fibonacci", "natural", "cardinal", "fixed-point", "baryon", "biquadrate", "sequence", "definite", "cardinality", "quota", "no", "folio", "remainder", "minuend", "pagination", "radix", "subtrahend", "co-ordinate", "fourth", "biquadratic", "multiplicand", "square", "cube", "constant", "power", "addend", "augend", "state", "dividend", "paging", "arity", "compound", "linage", "unit", "page", "quotient", "divisor", "second", "lineage", "decimal", "quantity", ".", "quartic", "score", "position", "factor", "integer", "difference", "coordinate", "concept", "floating-point", "base", "ordinal", "oxidation", "imaginary", "composite", "whole", "root", "record"], "overlap": ["page", "number"]}, "act.n.04": {"source_words": ["30", "goal", "pay", "31", "//www.surrey.ca/city-services/4789.aspx", "number", "travel", "53", "vision", "information", "222", "location", "station", "62", "spaces", "76", "834", "128", "department", "surrey", "42", "transit", "transportation", "city", "driving", "107", "39", "please", "2", "proposal", "26", "page", "40", "cycling", "24", "rate", "view", "3", "space", "plan", "walking", "priority", "12", "10", "7", "111", "59", "50", "smarter", "stations", "choice", "61", "45", "9", "option", "125", "parking"], "target_words": ["act", "program", "time", "showstopper", "number", "turn", "performance", "part", "evening", "presentation", "bit", "show-stopper", "public", "stopper", "routine"], "overlap": ["number"]}, "phone_number.n.01": {"source_words": ["30", "goal", "pay", "31", "//www.surrey.ca/city-services/4789.aspx", "number", "travel", "53", "vision", "information", "222", "location", "station", "62", "spaces", "76", "834", "128", "department", "surrey", "42", "transit", "transportation", "city", "driving", "107", "39", "please", "2", "proposal", "26", "page", "40", "cycling", "24", "rate", "view", "3", "space", "plan", "walking", "priority", "12", "10", "7", "111", "59", "50", "smarter", "stations", "choice", "61", "45", "9", "option", "125", "parking"], "target_words": ["telephone", "number", "signal", "sign", "signaling", "phone"], "overlap": ["number"]}, "numeral.n.01": {"source_words": ["30", "goal", "pay", "31", "//www.surrey.ca/city-services/4789.aspx", "number", "travel", "53", "vision", "information", "222", "location", "station", "62", "spaces", "76", "834", "128", "department", "surrey", "42", "transit", "transportation", "city", "driving", "107", "39", "please", "2", "proposal", "26", "page", "40", "cycling", "24", "rate", "view", "3", "space", "plan", "walking", "priority", "12", "10", "7", "111", "59", "50", "smarter", "stations", "choice", "61", "45", "9", "option", "125", "parking"], "target_words": ["antilog", "Hindu-Arabic", "Roman", "Hindu", "number", "school", "Arabic", "antilogarithm", "numeral", "symbol"], "overlap": ["number"]}, "issue.n.02": {"source_words": ["30", "goal", "pay", "31", "//www.surrey.ca/city-services/4789.aspx", "number", "travel", "53", "vision", "information", "222", "location", "station", "62", "spaces", "76", "834", "128", "department", "surrey", "42", "transit", "transportation", "city", "driving", "107", "39", "please", "2", "proposal", "26", "page", "40", "cycling", "24", "rate", "view", "3", "space", "plan", "walking", "priority", "12", "10", "7", "111", "59", "50", "smarter", "stations", "choice", "61", "45", "9", "option", "125", "parking"], "target_words": ["waiting", "issue", "edition", "series", "number", "magazine", "periodical", "dentist", "room"], "overlap": ["number"]}, "number.n.07": {"source_words": ["30", "goal", "pay", "31", "//www.surrey.ca/city-services/4789.aspx", "number", "travel", "53", "vision", "information", "222", "location", "station", "62", "spaces", "76", "834", "128", "department", "surrey", "42", "transit", "transportation", "city", "driving", "107", "39", "please", "2", "proposal", "26", "page", "40", "cycling", "24", "rate", "view", "3", "space", "plan", "walking", "priority", "12", "10", "7", "111", "59", "50", "smarter", "stations", "choice", "61", "45", "9", "option", "125", "parking"], "target_words": ["number", "people", "company"], "overlap": ["number"]}, "number.n.08": {"source_words": ["30", "goal", "pay", "31", "//www.surrey.ca/city-services/4789.aspx", "number", "travel", "53", "vision", "information", "222", "location", "station", "62", "spaces", "76", "834", "128", "department", "surrey", "42", "transit", "transportation", "city", "driving", "107", "39", "please", "2", "proposal", "26", "page", "40", "cycling", "24", "rate", "view", "3", "space", "plan", "walking", "priority", "12", "10", "7", "111", "59", "50", "smarter", "stations", "choice", "61", "45", "9", "option", "125", "parking"], "target_words": ["BIN", "string", "number", "identification", "transit", "license", "bank", "ABA", "positive", "numeral", "registration", "personal", "PIN", "Security", "Social"], "overlap": ["transit", "number"]}, "number.n.09": {"source_words": ["30", "goal", "pay", "31", "//www.surrey.ca/city-services/4789.aspx", "number", "travel", "53", "vision", "information", "222", "location", "station", "62", "spaces", "76", "834", "128", "department", "surrey", "42", "transit", "transportation", "city", "driving", "107", "39", "please", "2", "proposal", "26", "page", "40", "cycling", "24", "rate", "view", "3", "space", "plan", "walking", "priority", "12", "10", "7", "111", "59", "50", "smarter", "stations", "choice", "61", "45", "9", "option", "125", "parking"], "target_words": ["measurement", "number", "colloquialism", "size", "clothing", "shoe"], "overlap": ["number"]}, "number.n.10": {"source_words": ["30", "goal", "pay", "31", "//www.surrey.ca/city-services/4789.aspx", "number", "travel", "53", "vision", "information", "222", "location", "station", "62", "spaces", "76", "834", "128", "department", "surrey", "42", "transit", "transportation", "city", "driving", "107", "39", "please", "2", "proposal", "26", "page", "40", "cycling", "24", "rate", "view", "3", "space", "plan", "walking", "priority", "12", "10", "7", "111", "59", "50", "smarter", "stations", "choice", "61", "45", "9", "option", "125", "parking"], "target_words": ["entity", "number", "form", "category", "noun", "grammatical", "syntactic", "pronoun", "subject", "verb", "English"], "overlap": ["number"]}, "number.n.11": {"source_words": ["30", "goal", "pay", "31", "//www.surrey.ca/city-services/4789.aspx", "number", "travel", "53", "vision", "information", "222", "location", "station", "62", "spaces", "76", "834", "128", "department", "surrey", "42", "transit", "transportation", "city", "driving", "107", "39", "please", "2", "proposal", "26", "page", "40", "cycling", "24", "rate", "view", "3", "space", "plan", "walking", "priority", "12", "10", "7", "111", "59", "50", "smarter", "stations", "choice", "61", "45", "9", "option", "125", "parking"], "target_words": ["merchandise", "number", "ware", "nylon", "sweater", "product", "item", "sale"], "overlap": ["number"]}}], [{"space.n.01": {"syn_name": "space.n.01", "expl": ["they tested his ability to locate objects in space", "the boundless regions of the infinite"], "defn": "the unlimited expanse in which everything is located", "hyper": ["attribute.n.02", "abstraction.n.06", "entity.n.01"], "hypo": ["absolute_space.n.01", "mathematical_space.n.01", "outer_space.n.01", "phase_space.n.01", "manifold.n.03", "metric_space.n.01", "null_space.n.01", "subspace.n.01", "dynamical_system.n.01", "euclidean_space.n.01", "hilbert_space.n.01", "chaos.n.04"], "hyper_num_depth1": 1, "hypo_num_depth1": 4, "topic_dom": [], "region_dom": [], "usage_dom": [], "lemmas": ["space.n.01.space", "space.n.01.infinite"], "lem_deriv_rel": ["space.n.01.spacial", "space.n.01.spatial"], "anto": []}, "space.n.02": {"syn_name": "space.n.02", "expl": ["the architect left space in front of the building", "they stopped at an open space in the jungle", "the space between his teeth"], "defn": "an empty area (usually bounded in some way between things)", "hyper": ["amorphous_shape.n.01", "location.n.01", "shape.n.02", "object.n.01", "attribute.n.02", "physical_entity.n.01", "abstraction.n.06", "entity.n.01"], "hypo": ["angle.n.01", "cavity.n.02", "compartment.n.01", "crenel.n.02", "enclosure.n.03", "expanse.n.03", "hole.n.04", "opening.n.01", "pleural_space.n.01", "pocket.n.04", "subarachnoid_space.n.01", "swath.n.01", "void.n.02", "angle_of_extinction.n.01", "angle_of_incidence.n.01", "angle_of_reflection.n.01", "angle_of_refraction.n.01", "angular_distance.n.01", "axil.n.01", "azimuth.n.01", "complementary_angles.n.01", "crotch.n.02", "cutting_angle.n.01", "dip.n.02", "dogleg.n.01", "exterior_angle.n.01", "face_angle.n.01", "helix_angle.n.01", "inclination.n.02", "inclination.n.03", "interior_angle.n.01", "lead.n.05", "magnetic_declination.n.01", "oblique_angle.n.01", "perigon.n.01", "plane_angle.n.01", "polyhedral_angle.n.01", "reflex_angle.n.01", "right_angle.n.01", "salient_angle.n.01", "solid_angle.n.01", "spherical_angle.n.01", "tilt_angle.n.01", "vertical_angle.n.01", "view_angle.n.01", "wave_angle.n.01", "hollow.n.01", "pouch.n.02", "cell.n.01", "cubbyhole.n.01", "post-office_box.n.01", "cavern.n.01", "matrix.n.03", "sheet.n.01", "stretch.n.01", "pore.n.01", "breach.n.02", "chasm.n.01", "crack.n.01", "diastema.n.01", "foramen.n.01", "hole.n.01", "mouth.n.03", "pocket.n.09", "ranvier's_nodes.n.01", "rift.n.01", "rip.n.02", "window.n.04", "angle_of_attack.n.01", "critical_angle.n.01", "declination.n.03", "hour_angle.n.02", "latitude.n.01", "longitude.n.01", "right_ascension.n.01", "true_anomaly.n.01", "hip.n.04", "reentrant_angle.n.01", "acute_angle.n.01", "obtuse_angle.n.01", "slack.n.03", "abyss.n.01", "gulf.n.03", "chap.n.03", "chink.n.02", "crevasse.n.01", "fatigue_crack.n.01", "fault.n.04", "rift.n.02", "slit.n.04", "split.n.04", "vent.n.03", "foramen_magnum.n.01", "interventricular_foramen.n.01", "aperture.n.02", "bolt-hole.n.01", "bullet_hole.n.01", "cranny.n.02", "knothole.n.01", "leak.n.01", "ozone_hole.n.01", "perforation.n.02", "rathole.n.01", "corner_pocket.n.01", "side_pocket.n.01", "inclined_fault.n.01", "strike-slip_fault.n.01", "micropyle.n.01", "pupil.n.02", "stoma.n.01", "normal_fault.n.01", "thrust_fault.n.01", "germ_pore.n.01", "hydathode.n.01", "lenticel.n.01"], "hyper_num_depth1": 2, "hypo_num_depth1": 13, "topic_dom": [], "region_dom": [], "usage_dom": [], "lemmas": ["space.n.02.space"], "lem_deriv_rel": ["space.n.02.space"], "anto": []}, "space.n.03": {"syn_name": "space.n.03", "expl": ["the laboratory's floor space"], "defn": "an area reserved for some particular purpose", "hyper": ["area.n.01", "region.n.03", "location.n.01", "object.n.01", "physical_entity.n.01", "entity.n.01"], "hypo": ["airspace.n.01", "crawlspace.n.01", "disk_space.n.01", "flies.n.01", "key.n.09", "no-parking_zone.n.01", "parking_space.n.01", "seat.n.01", "separation.n.06", "terreplein.n.01", "workspace.n.01", "disk_overhead.n.01", "swap_space.n.01", "perch.n.04"], "hyper_num_depth1": 1, "hypo_num_depth1": 11, "topic_dom": [], "region_dom": [], "usage_dom": [], "lemmas": ["space.n.03.space"], "lem_deriv_rel": ["space.n.03.spacious"], "anto": []}, "outer_space.n.01": {"syn_name": "outer_space.n.01", "expl": ["the astronauts walked in outer space without a tether", "the first major milestone in space exploration was in 1957, when the USSR's Sputnik 1 orbited the Earth"], "defn": "any location outside the Earth's atmosphere", "hyper": ["location.n.01", "space.n.01", "object.n.01", "attribute.n.02", "physical_entity.n.01", "abstraction.n.06", "entity.n.01"], "hypo": [], "hyper_num_depth1": 2, "hypo_num_depth1": 0, "topic_dom": [], "region_dom": [], "usage_dom": [], "lemmas": ["outer_space.n.01.outer_space", "outer_space.n.01.space"], "lem_deriv_rel": [], "anto": []}, "space.n.05": {"syn_name": "space.n.05", "expl": ["he said the space is the most important character in the alphabet"], "defn": "a blank character used to separate successive words in writing or printing", "hyper": ["character.n.08", "written_symbol.n.01", "symbol.n.01", "signal.n.01", "communication.n.02", "abstraction.n.06", "entity.n.01"], "hypo": [], "hyper_num_depth1": 1, "hypo_num_depth1": 0, "topic_dom": [], "region_dom": [], "usage_dom": [], "lemmas": ["space.n.05.space", "space.n.05.blank"], "lem_deriv_rel": ["space.n.05.space"], "anto": []}, "distance.n.05": {"syn_name": "distance.n.05", "expl": ["the distance from birth to death", "it all happened in the space of 10 minutes"], "defn": "the interval between two times", "hyper": ["time_interval.n.01", "measure.n.02", "abstraction.n.06", "entity.n.01"], "hypo": [], "hyper_num_depth1": 1, "hypo_num_depth1": 0, "topic_dom": [], "region_dom": [], "usage_dom": [], "lemmas": ["distance.n.05.distance", "distance.n.05.space"], "lem_deriv_rel": ["distance.n.05.distant", "distance.n.05.space"], "anto": []}, "space.n.07": {"syn_name": "space.n.07", "expl": ["write your name in the space provided"], "defn": "a blank area", "hyper": ["area.n.06", "extent.n.02", "magnitude.n.01", "property.n.02", "attribute.n.02", "abstraction.n.06", "entity.n.01"], "hypo": ["indentation.n.03", "margin.n.05"], "hyper_num_depth1": 1, "hypo_num_depth1": 2, "topic_dom": [], "region_dom": [], "usage_dom": [], "lemmas": ["space.n.07.space", "space.n.07.blank_space", "space.n.07.place"], "lem_deriv_rel": ["space.n.07.place"], "anto": []}, "space.n.08": {"syn_name": "space.n.08", "expl": ["the spaces are the notes F-A-C-E"], "defn": "one of the areas between or below or above the lines of a musical staff", "hyper": ["area.n.06", "extent.n.02", "magnitude.n.01", "property.n.02", "attribute.n.02", "abstraction.n.06", "entity.n.01"], "hypo": [], "hyper_num_depth1": 1, "hypo_num_depth1": 0, "topic_dom": [], "region_dom": [], "usage_dom": [], "lemmas": ["space.n.08.space"], "lem_deriv_rel": [], "anto": []}, "quad.n.03": {"syn_name": "quad.n.03", "expl": [], "defn": "(printing) a block of type without a raised letter; used for spacing between words or sentences", "hyper": ["type.n.06", "block.n.01", "artifact.n.01", "whole.n.02", "object.n.01", "physical_entity.n.01", "entity.n.01"], "hypo": ["hair_space.n.01"], "hyper_num_depth1": 1, "hypo_num_depth1": 1, "topic_dom": ["printing.n.03"], "region_dom": [], "usage_dom": [], "lemmas": ["quad.n.03.quad", "quad.n.03.space"], "lem_deriv_rel": [], "anto": []}}, {"space.n.01": {"source_words": ["30", "goal", "pay", "31", "//www.surrey.ca/city-services/4789.aspx", "number", "travel", "53", "vision", "information", "222", "location", "station", "62", "spaces", "76", "834", "128", "department", "surrey", "42", "transit", "transportation", "city", "driving", "107", "39", "please", "2", "proposal", "26", "page", "40", "cycling", "24", "rate", "view", "3", "space", "plan", "walking", "priority", "12", "10", "7", "111", "59", "50", "smarter", "stations", "choice", "61", "45", "9", "option", "125", "parking"], "target_words": ["everything", "mathematical", "region", "boundless", "expanse", "topological", "attribute", "outer", "spatial", "infinite", "spacial", "ability", "absolute", "space", "object", "phase"], "overlap": ["space"]}, "space.n.02": {"source_words": ["30", "goal", "pay", "31", "//www.surrey.ca/city-services/4789.aspx", "number", "travel", "53", "vision", "information", "222", "location", "station", "62", "spaces", "76", "834", "128", "department", "surrey", "42", "transit", "transportation", "city", "driving", "107", "39", "please", "2", "proposal", "26", "page", "40", "cycling", "24", "rate", "view", "3", "space", "plan", "walking", "priority", "12", "10", "7", "111", "59", "50", "smarter", "stations", "choice", "61", "45", "9", "option", "125", "parking"], "target_words": ["angle", "natural", "pleural", "location", "emptiness", "swath", "vacuum", "pocket", "teeth", "amorphous", "jungle", "way", "building", "opening", "enclosed", "cavity", "area", "thing", "front", "expanse", "void", "shape", "enclosure", "crenelle", "space", "subarachnoid", "hole", "architect", "compartment", "gap", "crenel", "vacancy"], "overlap": ["location", "space"]}, "space.n.03": {"source_words": ["30", "goal", "pay", "31", "//www.surrey.ca/city-services/4789.aspx", "number", "travel", "53", "vision", "information", "222", "location", "station", "62", "spaces", "76", "834", "128", "department", "surrey", "42", "transit", "transportation", "city", "driving", "107", "39", "please", "2", "proposal", "26", "page", "40", "cycling", "24", "rate", "view", "3", "space", "plan", "walking", "priority", "12", "10", "7", "111", "59", "50", "smarter", "stations", "choice", "61", "45", "9", "option", "125", "parking"], "target_words": ["seat", "place", "floor", "disk", "purpose", "crawl", "key", "workspace", "separation", "area", "paint", "laboratory", "space", "air", "airspace", "crawlspace", "zone", "terreplein", "country", "no-parking", "disc", "flies", "parking", "spacious"], "overlap": ["parking", "space"]}, "outer_space.n.01": {"source_words": ["30", "goal", "pay", "31", "//www.surrey.ca/city-services/4789.aspx", "number", "travel", "53", "vision", "information", "222", "location", "station", "62", "spaces", "76", "834", "128", "department", "surrey", "42", "transit", "transportation", "city", "driving", "107", "39", "please", "2", "proposal", "26", "page", "40", "cycling", "24", "rate", "view", "3", "space", "plan", "walking", "priority", "12", "10", "7", "111", "59", "50", "smarter", "stations", "choice", "61", "45", "9", "option", "125", "parking"], "target_words": ["astronaut", "tether", "Earth", "outer", "atmosphere", "exploration", "location", "infinite", "milestone", "USSR", "space", "Sputnik"], "overlap": ["location", "space"]}, "space.n.05": {"source_words": ["30", "goal", "pay", "31", "//www.surrey.ca/city-services/4789.aspx", "number", "travel", "53", "vision", "information", "222", "location", "station", "62", "spaces", "76", "834", "128", "department", "surrey", "42", "transit", "transportation", "city", "driving", "107", "39", "please", "2", "proposal", "26", "page", "40", "cycling", "24", "rate", "view", "3", "space", "plan", "walking", "priority", "12", "10", "7", "111", "59", "50", "smarter", "stations", "choice", "61", "45", "9", "option", "125", "parking"], "target_words": ["character", "alphabet", "symbol", "blank", "printing", "word", "space", "graphic", "grapheme"], "overlap": ["space"]}, "distance.n.05": {"source_words": ["30", "goal", "pay", "31", "//www.surrey.ca/city-services/4789.aspx", "number", "travel", "53", "vision", "information", "222", "location", "station", "62", "spaces", "76", "834", "128", "department", "surrey", "42", "transit", "transportation", "city", "driving", "107", "39", "please", "2", "proposal", "26", "page", "40", "cycling", "24", "rate", "view", "3", "space", "plan", "walking", "priority", "12", "10", "7", "111", "59", "50", "smarter", "stations", "choice", "61", "45", "9", "option", "125", "parking"], "target_words": ["distance", "time", "minute", "death", "space", "birth", "interval", "distant"], "overlap": ["space"]}, "space.n.07": {"source_words": ["30", "goal", "pay", "31", "//www.surrey.ca/city-services/4789.aspx", "number", "travel", "53", "vision", "information", "222", "location", "station", "62", "spaces", "76", "834", "128", "department", "surrey", "42", "transit", "transportation", "city", "driving", "107", "39", "please", "2", "proposal", "26", "page", "40", "cycling", "24", "rate", "view", "3", "space", "plan", "walking", "priority", "12", "10", "7", "111", "59", "50", "smarter", "stations", "choice", "61", "45", "9", "option", "125", "parking"], "target_words": ["area", "space", "surface", "expanse", "indent", "indenture", "blank", "name", "indentation", "margin", "place", "indention"], "overlap": ["space"]}, "space.n.08": {"source_words": ["30", "goal", "pay", "31", "//www.surrey.ca/city-services/4789.aspx", "number", "travel", "53", "vision", "information", "222", "location", "station", "62", "spaces", "76", "834", "128", "department", "surrey", "42", "transit", "transportation", "city", "driving", "107", "39", "please", "2", "proposal", "26", "page", "40", "cycling", "24", "rate", "view", "3", "space", "plan", "walking", "priority", "12", "10", "7", "111", "59", "50", "smarter", "stations", "choice", "61", "45", "9", "option", "125", "parking"], "target_words": ["area", "surface", "expanse", "note", "line", "space", "staff", "F-A-C-E"], "overlap": ["space"]}, "quad.n.03": {"source_words": ["30", "goal", "pay", "31", "//www.surrey.ca/city-services/4789.aspx", "number", "travel", "53", "vision", "information", "222", "location", "station", "62", "spaces", "76", "834", "128", "department", "surrey", "42", "transit", "transportation", "city", "driving", "107", "39", "please", "2", "proposal", "26", "page", "40", "cycling", "24", "rate", "view", "3", "space", "plan", "walking", "priority", "12", "10", "7", "111", "59", "50", "smarter", "stations", "choice", "61", "45", "9", "option", "125", "parking"], "target_words": ["quad", "hair", "type", "process", "space", "letter", "word", "printing", "block", "sentence"], "overlap": ["space"]}}]]]